<?xml version="1.0"?><VTKFile type="PolyData" version="0.1" byte_order="LittleEndian">
<PolyData>
<Piece NumberOfLines="53232" NumberOfPoints="53233">
<CellData Scalars=" CellData">
<DataArray type="Float32" Name="radius" NumberOfComponents="1" format="ascii" >
2.49539 2.49539 2.49539 2.49539 2.49539 2.49539 2.49539 2.49539 2.49539 2.49539 2.49539 2.49539 2.49539 2.49539 2.49539 2.49539 2.49539 2.49539 2.49539 2.49539 2.49539 2.49539 2.49539 2.49539 2.49539 2.49539 2.49539 2.49539 2.49539 2.49539 2.49539 2.49539 2.49539 2.49539 2.49539 2.49539 2.49539 2.49539 2.49539 2.49539 2.49539 2.49539 2.49539 2.49539 1.2233 1.2233 1.2233 1.2233 1.2233 1.2233 1.2233 1.2233 1.2233 1.2233 1.2233 1.2233 1.2233 1.2233 1.2233 1.2233 1.2233 1.2233 1.2233 1.2233 1.2233 1.2233 1.2233 1.2233 1.2233 1.2233 1.2233 1.2233 1.2233 1.2233 1.2233 1.2233 1.2233 1.2233 1.2233 1.2233 1.2233 1.2233 1.2233 1.2233 1.2233 1.2233 1.2233 1.2233 1.2233 1.2233 1.2233 1.2233 1.2233 1.2233 1.2233 1.2233 1.2233 1.2233 1.2233 1.2233 1.2233 1.2233 1.2233 1.2233 1.2233 1.2233 1.2233 1.2233 1.2233 1.2233 1.2233 1.2233 1.2233 1.2233 1.2233 1.2233 1.2233 1.2233 1.2233 1.2233 1.2233 1.2233 1.2233 1.2233 1.2233 1.2233 1.2233 1.2233 1.2233 1.2233 1.2233 1.2233 1.2233 1.2233 1.2233 1.2233 1.2233 1.2233 1.2233 1.2233 1.2233 1.2233 1.2233 1.2233 1.2233 1.2233 1.2233 1.2233 1.2233 1.2233 1.2233 1.2233 1.2233 1.2233 1.2233 1.2233 1.2233 1.2233 1.2233 1.2233 1.2233 1.2233 1.2233 1.2233 1.2233 1.2233 1.2233 1.2233 1.2233 1.2233 1.2233 1.2233 1.2233 1.2233 1.2233 1.2233 1.2233 1.2233 1.2233 1.2233 1.2233 1.2233 1.2233 1.2233 1.2233 1.2233 1.2233 1.2233 1.2233 1.2233 1.2233 1.2233 1.2233 1.2233 1.2233 1.2233 1.2233 1.2233 1.2233 1.2233 1.2233 1.2233 1.2233 1.2233 1.2233 1.2233 1.2233 1.2233 1.2233 1.2233 1.2233 1.2233 1.2233 1.2233 1.2233 1.2233 1.2233 1.2233 1.2233 1.2233 1.2233 1.2233 1.2233 1.2233 1.2233 1.2233 1.2233 1.2233 1.2233 1.2233 1.2233 1.2233 1.2233 1.2233 1.2233 1.2233 1.2233 1.2233 1.2233 1.2233 1.2233 1.2233 1.2233 1.2233 1.2233 1.2233 1.2233 1.2233 1.2233 1.2233 1.2233 1.2233 1.2233 1.2233 1.2233 1.2233 1.2233 1.2233 1.2233 1.2233 1.2233 1.2233 1.2233 1.2233 1.2233 1.2233 1.2233 1.2233 1.2233 1.2233 1.2233 1.2233 1.2233 1.2233 1.2233 1.2233 1.2233 1.2233 1.2233 1.2233 1.2233 1.2233 1.2233 1.2233 1.2233 1.2233 1.2233 1.2233 1.2233 1.2233 1.2233 1.2233 1.2233 1.2233 1.2233 1.2233 1.2233 1.2233 1.2233 1.2233 1.2233 1.2233 1.2233 1.2233 1.2233 1.2233 1.2233 1.2233 1.2233 1.2233 1.2233 1.2233 1.2233 1.2233 1.2233 1.2233 1.2233 0.0325278 0.0325278 0.0325278 0.0325278 0.0325278 0.0325278 0.0325278 0.0325278 0.0325278 0.0325278 0.0325278 0.0325278 0.0325278 0.335177 0.335177 0.335177 0.335177 0.335177 0.335177 0.335177 0.335177 0.335177 0.335177 0.335177 0.335177 0.335177 0.335177 0.335177 0.0420577 0.0438577 0.0438577 0.0438577 0.0438577 0.0438577 0.0438577 0.0438577 0.0438577 0.0438577 0.0412908 0.0412908 0.0412908 0.0412908 0.0412908 0.0412908 0.0412908 0.0412908 0.0350763 0.0350763 0.0350763 0.0350763 0.0350763 0.0350763 0.0350763 0.0350763 0.0350763 0.0350763 0.0350763 0.0350763 0.0350763 0.0350763 0.0350763 0.0390842 0.0390842 0.0390842 0.0390842 0.0390842 0.0390842 0.0398841 0.0398841 0.0398841 0.0398841 0.0398841 0.0398841 0.0398841 0.0398841 0.0398841 0.0339767 0.0339767 0.0339767 0.0339767 0.0339767 0.0339767 0.0339767 0.0450275 0.0450275 0.0450275 0.0450275 0.0450275 0.0405351 0.0405351 0.0405351 0.0405351 0.0405351 0.0405351 0.0405351 0.0405351 0.0405351 0.0405351 0.0405351 0.0405351 0.0402035 0.0402035 0.0402035 0.0402035 0.0402035 0.0402035 0.0402035 0.0402035 0.0402035 0.0402035 0.0402035 0.0402035 0.0402035 0.0402035 0.0402035 0.0402035 0.0436181 0.0466927 0.0466927 0.0466927 0.0466927 0.0466927 0.0359562 0.0359562 0.0359562 0.0359562 0.0359562 0.0359562 0.0359562 0.0359562 0.0359562 0.0359562 0.0359562 0.0359562 0.0359562 0.0359562 0.0359562 0.0392294 0.0392294 0.0392294 0.0392294 0.0392294 0.0406643 0.0406643 0.0406643 0.0406643 0.0406643 0.0399452 0.0380991 0.0380991 0.0380991 0.0380991 0.0380991 0.0380991 0.0380991 0.0380991 0.0380991 0.0380991 0.0358726 0.0358726 0.0358726 0.0358726 0.0358726 0.352419 0.352419 0.352419 0.352419 0.352419 0.352419 0.352419 0.352419 0.352419 0.352419 0.352419 0.352419 0.352419 0.352419 0.352419 0.352419 0.0351683 0.0351683 0.0351683 0.0351683 0.0351683 0.0351683 0.0351683 0.0351683 0.0380917 0.0380917 0.0380917 0.0380917 0.0380917 0.0380917 0.0380917 0.0380917 0.0380917 0.0380917 0.0380917 0.0380917 0.0446661 0.0446661 0.0446661 0.0446661 0.0446661 0.0446661 0.0446661 0.0446661 0.0446661 0.0446661 0.0446661 0.0446661 0.0446661 0.0446661 0.0446661 0.0446661 0.0446661 0.0447051 0.0340779 0.0340779 0.0340779 0.0340779 0.0340779 0.0340779 0.0340779 0.0340779 0.0340779 0.0340779 0.0340779 0.0340779 0.0340779 0.0340779 0.0340779 0.0399451 0.0399451 0.0399451 0.0399451 0.0399451 0.0399451 0.0399451 0.0399451 0.0329798 0.0424022 0.0387282 0.0387282 0.0387282 0.0387282 0.0387282 0.0387282 0.0387282 0.0387282 0.0387282 0.0387282 0.0387282 0.0387282 0.0387282 0.0387282 0.0387282 0.0387282 0.0387282 0.0387282 0.0387282 0.0387282 0.0387282 0.0387282 0.0471358 0.0471358 0.0471358 0.0471358 0.0471358 0.0471358 0.0471358 0.0471358 0.0471358 0.0471358 0.0471358 0.0471358 0.0471358 0.0413656 0.0413656 0.0413656 0.0413656 0.0413656 0.0413656 0.0413656 0.0413656 0.0413656 0.0413656 0.0413656 0.0452935 0.0452935 0.0452935 0.0452935 0.0452935 0.0452935 0.0452935 0.0452935 0.0452935 0.0452935 0.0452935 0.0452935 0.0452935 0.0452935 0.0452935 0.0452935 0.0452935 0.0452935 0.0385313 0.038253 0.038253 0.038253 0.038253 0.038253 0.038253 0.038253 0.037177 0.037177 0.037177 0.037177 0.037177 0.037177 0.037177 0.037177 0.037177 0.037177 0.037177 0.037177 0.037177 0.29098 0.29098 0.29098 0.29098 0.29098 0.29098 0.29098 0.29098 0.29098 0.29098 0.29098 0.29098 0.29098 0.29098 0.29098 0.29098 0.29098 0.0461377 0.0461377 0.0461377 0.0461377 0.0461377 0.0461377 0.0461377 0.0461377 0.0461377 0.0461377 0.0461377 0.0405044 0.0405044 0.0405044 0.0405044 0.0405044 0.0405044 0.0405044 0.0405044 0.0405044 0.0421024 0.0421024 0.0421024 0.0421024 0.0421024 0.0421024 0.0421024 0.0421024 0.0421024 0.0421024 0.0421024 0.0421024 0.0421024 0.0421024 0.0421024 0.0421024 0.0421024 0.0421024 0.0421024 0.0450544 0.0450544 0.0450544 0.0450544 0.0450544 0.0450544 0.0450544 0.0450544 0.0450544 0.0450544 0.0390174 0.0390174 0.0390174 0.0390174 0.0390174 0.0390174 0.0390174 0.0376072 0.0376072 0.0376072 0.0376072 0.0376072 0.0376072 0.0376072 0.0376072 0.0376072 0.0376072 0.0376072 0.0376072 0.0361086 0.0361086 0.0361086 0.0361086 0.0361086 0.0361086 0.0361086 0.0361086 0.0361086 0.0361086 0.0361086 0.0361086 0.0361086 0.0361086 0.0361086 0.0361086 0.0344983 0.0344983 0.0344983 0.0344983 0.0344983 0.0344983 0.0344983 0.0344983 0.0344983 0.0344983 0.0344983 0.0344983 0.0344983 0.0344983 0.0344983 0.0344983 0.0344983 0.0344983 0.0344983 0.0401163 0.0382075 0.0382075 0.0382075 0.0382075 0.0455973 0.0455973 0.0455973 0.0455973 0.0455973 0.0455973 0.0455973 0.0455973 0.0373641 0.0373641 0.0373641 0.0373641 0.0373641 0.0373641 0.0373641 0.0373641 0.0373641 0.0373641 0.0403264 0.0420106 0.0420106 0.0420106 0.0420106 0.0420106 0.0420106 0.0420106 0.0420106 0.0420106 0.0420106 0.0420106 0.0420106 0.0420106 0.0420106 0.0309458 0.0309458 0.0309458 0.0309458 0.0309458 0.0309458 0.0309458 0.0309458 0.0309458 0.0309458 0.0309458 0.0309458 0.0309458 0.0309458 0.0309458 0.0309458 0.0309458 0.0309458 0.0309458 0.0309458 0.0402052 0.0402052 0.0402052 0.032712 0.032712 0.032712 0.032712 0.032712 0.032712 0.032712 0.043091 0.043091 0.043091 0.043091 0.043091 0.0404332 0.0404332 0.0404332 0.0404332 0.0404332 0.0404332 0.0404332 0.0404332 0.0404332 0.0404332 0.0404332 0.0404332 0.0404332 0.0404332 0.0404332 0.312279 0.312279 0.312279 0.312279 0.312279 0.312279 0.312279 0.312279 0.312279 0.312279 0.312279 0.312279 0.312279 0.312279 0.312279 0.312279 0.312279 0.312279 0.312279 0.312279 0.312279 0.312279 0.042217 0.042217 0.042217 0.042217 0.042217 0.042217 0.042217 0.042217 0.042217 0.042217 0.042217 0.042217 0.0346224 0.0346224 0.0346224 0.0346224 0.0346224 0.0378529 0.0378529 0.0378529 0.0378529 0.0378529 0.0378529 0.0378529 0.0378529 0.0378529 0.0378529 0.0378529 0.048115 0.048115 0.048115 0.048115 0.048115 0.048115 0.048115 0.048115 0.048115 0.048115 0.048115 0.048115 0.048115 0.048115 0.048115 0.0406337 0.0406337 0.0406337 0.0406337 0.0406337 0.0406337 0.0406337 0.0406337 0.0406337 0.0406337 0.0406337 0.0406337 0.040296 0.040296 0.040296 0.040296 0.040296 0.040296 0.040296 0.040296 0.040296 0.040296 0.040296 0.040296 0.040296 0.040296 0.040296 0.040296 0.040296 0.0355786 0.0355786 0.0355786 0.0355786 0.0355786 0.0355786 0.0355786 0.0355786 0.0355786 0.0355786 0.0355786 0.0355786 0.0355786 0.0355786 0.0389033 0.0389033 0.0389033 0.0389033 0.0389033 0.0389033 0.0387808 0.0387808 0.0387808 0.0387808 0.0387808 0.0387808 0.0387808 0.0387808 0.0387808 0.0387808 0.0387808 0.0387808 0.0387808 0.0325858 0.0325858 0.0325858 0.0325858 0.0325858 0.0325858 0.0325858 0.0325858 0.0408438 0.0408438 0.0421287 0.300181 0.300181 0.300181 0.300181 0.300181 0.300181 0.300181 0.300181 0.300181 0.300181 0.300181 0.300181 0.300181 0.300181 0.300181 0.300181 0.300181 0.300181 0.0428827 0.0347592 0.0347592 0.0347592 0.0347592 0.0347592 0.0347592 0.0347592 0.0347592 0.0347592 0.0347592 0.0347592 0.0347592 0.0347592 0.0354371 0.0354371 0.0354371 0.0354371 0.0354371 0.0354371 0.0354371 0.0354371 0.0354371 0.0354371 0.0354371 0.0354371 0.0354371 0.0354371 0.0354371 0.0375563 0.0375563 0.0375563 0.0375563 0.041982 0.041982 0.041982 0.041982 0.041982 0.041982 0.041982 0.041982 0.041982 0.041982 0.041982 0.041982 0.041982 0.041982 0.041982 0.041982 0.041982 0.041982 0.041982 0.041982 0.041982 0.041982 0.041982 0.041982 0.0357717 0.0357717 0.0357717 0.0357717 0.0357717 0.0357717 0.0357717 0.0357717 0.0398371 0.0398371 0.0398371 0.0398371 0.0398371 0.0398371 0.0398371 0.0398371 0.0398371 0.0398371 0.0398371 0.0424208 0.0424208 0.0424208 0.0424208 0.0424208 0.0424208 0.0424208 0.0484135 0.0484135 0.0484135 0.0484135 0.0484135 0.0484135 0.0484135 0.0484135 0.0484135 0.0484135 0.0484135 0.0484135 0.0397029 0.0397029 0.0397029 0.0397029 0.0397029 0.0397029 0.0397029 0.0397029 0.0397029 0.0397029 0.0397029 0.0397029 0.0397029 0.0318199 0.0318199 0.0318199 0.0318199 0.0318199 0.0318199 0.0318199 0.0318199 0.0318199 0.040195 0.040195 0.040195 0.040195 0.040195 0.040195 0.040195 0.040195 0.040195 0.040195 0.0413056 0.0413056 0.0413056 0.0413056 0.0413056 0.0413056 0.0413056 0.0413056 0.0413056 0.0426866 0.0380791 0.0380791 0.0380791 0.0380791 0.0380791 0.0380791 0.0380791 0.0380791 0.0380791 0.0380791 0.039664 0.039664 0.039664 0.039664 0.039664 0.039664 0.039664 0.039664 0.0347129 0.0347129 0.0347129 0.0347129 0.0347129 0.0347129 0.0347129 0.0347129 0.0347129 0.0347129 0.0347129 0.0347129 0.0347129 0.0460058 0.0460058 0.0460058 0.0460058 0.0460058 0.0460058 0.0460058 0.0460058 0.0460058 0.0460058 0.0412941 0.0412941 0.0412941 0.0412941 0.0412941 0.0412941 0.0412941 0.0412941 0.0412941 0.0412941 0.0412941 0.0412941 0.0396934 0.0396934 0.0396934 0.0396934 0.0396934 0.0396934 0.0396934 0.0396934 0.0396934 0.0396934 0.0396934 0.0396934 0.0396934 0.0396934 0.0396934 0.0398798 0.0398798 0.0398798 0.0398798 0.0398798 0.0398798 0.0398798 0.300738 0.300738 0.300738 0.300738 0.300738 0.300738 0.300738 0.300738 0.300738 0.300738 0.300738 0.300738 0.300738 0.300738 0.300738 0.300738 0.0419048 0.0419048 0.0419048 0.0419048 0.0419048 0.0419048 0.0419048 0.0419048 0.0419048 0.0419048 0.0419048 0.0419048 0.0419048 0.0362292 0.0362292 0.0362292 0.0362292 0.0362292 0.0362292 0.0362292 0.0388138 0.0388138 0.0388138 0.0388138 0.0388138 0.0388138 0.0388138 0.0388138 0.0388138 0.0388138 0.0388138 0.0388138 0.0388138 0.0388138 0.0441255 0.0441255 0.0441255 0.0441255 0.0441255 0.0441255 0.0441255 0.0379329 0.0379329 0.0379329 0.0379329 0.0379329 0.0379329 0.0379329 0.0379329 0.0379329 0.0365748 0.0365748 0.0365748 0.0365748 0.0365748 0.0365748 0.0365748 0.0365748 0.0389932 0.0389932 0.0389932 0.0389932 0.0389932 0.0389932 0.0389932 0.0389932 0.0344538 0.0381076 0.0381076 0.0381076 0.0381076 0.0381076 0.0370405 0.0370405 0.0370405 0.0370405 0.0370405 0.0370405 0.0370405 0.0370405 0.0437068 0.0437068 0.0437068 0.0437068 0.0437068 0.0437068 0.0437068 0.0437068 0.0437068 0.0385525 1.22305 1.22305 1.22305 1.22305 1.22305 1.22305 1.22305 1.22305 1.22305 1.22305 1.22305 1.22305 1.22305 1.22305 1.22305 1.22305 1.22305 1.22305 1.22305 1.22305 1.22305 1.22305 1.22305 1.22305 1.22305 1.22305 1.22305 1.22305 1.22305 1.22305 1.22305 1.22305 1.22305 1.22305 1.22305 1.22305 1.22305 1.22305 1.22305 1.22305 1.22305 1.22305 1.22305 1.22305 1.22305 1.22305 1.22305 1.22305 1.22305 1.22305 1.22305 1.22305 1.22305 1.22305 1.22305 1.22305 1.22305 1.22305 1.22305 1.22305 1.22305 1.22305 1.22305 1.22305 1.22305 1.22305 1.22305 1.22305 1.22305 1.22305 1.22305 1.22305 1.22305 1.22305 1.22305 1.22305 1.22305 1.22305 1.22305 1.22305 1.22305 1.22305 1.22305 1.22305 1.22305 1.22305 1.22305 1.22305 1.22305 1.22305 1.22305 1.22305 1.22305 1.22305 1.22305 1.22305 1.22305 1.22305 1.22305 1.22305 1.22305 1.22305 1.22305 1.22305 1.22305 1.22305 1.22305 1.22305 1.22305 1.22305 1.22305 1.22305 1.22305 1.22305 1.22305 1.22305 1.22305 1.22305 1.22305 1.22305 1.22305 1.22305 1.22305 1.22305 1.22305 1.22305 1.22305 1.22305 1.22305 1.22305 1.22305 1.22305 1.22305 1.22305 1.22305 1.22305 1.22305 1.22305 1.22305 1.22305 1.22305 1.22305 1.22305 1.22305 1.22305 1.22305 1.22305 1.22305 1.22305 1.22305 1.22305 1.22305 1.22305 1.22305 1.22305 1.22305 1.22305 1.22305 1.22305 1.22305 1.22305 1.22305 1.22305 1.22305 1.22305 1.22305 1.22305 1.22305 1.22305 1.22305 1.22305 1.22305 1.22305 1.22305 1.22305 1.22305 1.22305 1.22305 1.22305 1.22305 1.22305 1.22305 1.22305 1.22305 1.22305 1.22305 1.22305 1.22305 1.22305 1.22305 1.22305 1.22305 1.22305 1.22305 1.22305 1.22305 1.22305 1.22305 1.22305 1.22305 1.22305 1.22305 1.22305 1.22305 1.22305 1.22305 1.22305 1.22305 1.22305 1.22305 1.22305 1.22305 1.22305 1.22305 1.22305 1.22305 1.22305 1.22305 1.22305 1.22305 1.22305 1.22305 1.22305 1.22305 1.22305 1.22305 1.22305 1.22305 1.22305 1.22305 1.22305 1.22305 1.22305 1.22305 1.22305 1.22305 1.22305 1.22305 1.22305 1.22305 1.22305 1.22305 1.22305 1.22305 1.22305 1.22305 1.22305 1.22305 1.22305 1.22305 1.22305 1.22305 1.22305 1.22305 1.22305 1.22305 1.22305 1.22305 1.22305 1.22305 1.22305 1.22305 1.22305 1.22305 1.22305 1.22305 1.22305 1.22305 1.22305 1.22305 1.22305 1.22305 1.22305 1.22305 1.22305 1.22305 1.22305 1.22305 1.22305 1.22305 1.22305 1.22305 1.22305 1.22305 1.22305 1.22305 1.22305 1.22305 1.22305 1.22305 1.22305 1.22305 1.22305 1.22305 1.22305 1.22305 1.22305 1.22305 1.22305 1.22305 1.22305 1.22305 1.22305 1.22305 1.22305 1.22305 1.22305 1.22305 1.22305 1.22305 1.22305 1.22305 1.22305 1.22305 0.0363733 0.0363733 0.0363733 0.0363733 0.0363733 0.0363733 0.0363733 0.0363733 0.0363733 0.0363733 0.0363733 0.0363733 0.0363733 0.0363733 0.0363733 0.0363733 0.0363733 0.0363733 0.0363733 0.0363733 0.0366387 0.0382929 0.0382929 0.0382929 0.0382929 0.0382929 0.0382929 0.0382929 0.0382929 0.0382929 0.0382929 0.0464939 0.0464939 0.0464939 0.0464939 0.0464939 0.0464939 0.0464939 0.0464939 0.0464939 0.0464939 0.0464939 0.0464939 0.0464939 0.0464939 0.0464939 0.0464939 0.0464939 0.0464939 0.0464939 0.0464939 0.0403099 0.0403099 0.0403099 0.0403099 0.0403099 0.0403099 0.0403099 0.0403099 0.0403099 0.0403099 0.0403099 0.0403099 0.0475114 0.0475114 0.0475114 0.0475114 0.0475114 0.0475114 0.0475114 0.0475114 0.0351946 0.0351946 0.0351946 0.0351946 0.0351946 0.0351946 0.0351946 0.0351946 0.0351946 0.0351946 0.0351946 0.0351946 0.0351946 0.0351946 0.0351946 0.272832 0.272832 0.272832 0.272832 0.272832 0.272832 0.272832 0.272832 0.272832 0.272832 0.272832 0.272832 0.272832 0.272832 0.272832 0.272832 0.272832 0.272832 0.272832 0.0423081 0.0423081 0.0423081 0.0423081 0.0423081 0.0423081 0.0423081 0.0423081 0.0423081 0.0423081 0.0423081 0.0423081 0.0423081 0.0423081 0.0423081 0.0396327 0.0473117 0.0473117 0.0473117 0.0473117 0.0473117 0.0473117 0.0473117 0.0473117 0.0473117 0.0459097 0.0459097 0.0459097 0.0459097 0.0459097 0.0459097 0.0459097 0.0459097 0.0459097 0.0459097 0.0459097 0.0459097 0.0459097 0.0459097 0.0459097 0.0459097 0.0459097 0.041534 0.041534 0.041534 0.041534 0.041534 0.041534 0.041534 0.041534 0.041534 0.041534 0.041534 0.041534 0.041534 0.041534 0.041534 0.041534 0.041534 0.0407924 0.0407924 0.0407924 0.0407924 0.0407924 0.0407924 0.0407924 0.0399762 0.0399762 0.0399762 0.0399762 0.0399762 0.0399762 0.0399762 0.0399762 0.035987 0.035987 0.035987 0.035987 0.035987 0.035987 0.035987 0.035987 0.035987 0.035987 0.035987 0.035987 0.035987 0.035987 0.035987 0.035987 0.0345162 0.0345162 0.0345162 0.0345162 0.0345162 0.0345162 0.0345162 0.0345162 0.0345162 0.0345162 0.0345162 0.0345162 0.0376674 0.0376674 0.0376674 0.0376674 0.0376674 0.0352677 0.0352677 0.0352677 0.0352677 0.0352677 0.0352677 0.0352677 0.0352677 0.0352677 0.0352677 0.0352677 0.0352677 0.0401228 0.0401228 0.0401228 0.0401228 0.0364589 0.0364589 0.0364589 0.0364589 0.0364589 0.0364589 0.0364589 0.0364589 0.0364589 0.0364589 0.0364589 0.0364589 0.0364589 0.0364589 0.0364589 0.0364589 0.0411429 0.0411429 0.0411429 0.0411429 0.0411429 0.0411429 0.0411429 0.0411429 0.0411429 0.0411429 0.0411429 0.0411429 0.0411429 0.0411429 0.0411429 0.0411429 0.0411429 0.0411429 0.0411429 0.0344862 0.0344862 0.0344862 0.0344862 0.0344862 0.0344862 0.0344862 0.0344862 0.0344862 0.0344862 0.0344862 0.0344862 0.0344862 0.0344862 0.0344862 0.0344862 0.0344862 0.0344862 0.0344862 0.0344862 0.0344862 0.0344862 0.0344862 0.0344862 0.0344862 0.0344862 0.0433718 0.0433718 0.0433718 0.0433718 0.0420774 0.0420774 0.0420774 0.0420774 0.0420774 0.0420774 0.0420774 0.0420774 0.0420774 0.0420774 0.0420774 0.0420774 0.0420774 0.0420774 0.0420774 0.0372032 0.039596 0.039596 0.039596 0.039596 0.039596 0.039596 0.039596 0.039596 0.039596 0.039596 0.039596 0.039596 0.039596 0.0389677 0.0392377 0.0392377 0.0392377 0.0392377 0.0392377 0.0392377 0.0392377 0.334946 0.334946 0.334946 0.334946 0.334946 0.334946 0.334946 0.334946 0.334946 0.334946 0.334946 0.334946 0.334946 0.334946 0.334946 0.334946 0.334946 0.0436665 0.0436665 0.0436665 0.0436665 0.0436665 0.0436665 0.0436665 0.0436665 0.0436665 0.0436665 0.0436665 0.0436665 0.0436665 0.0436665 0.0436665 0.0436665 0.0436665 0.0436665 0.0433509 0.0433509 0.0433509 0.0433509 0.0433509 0.0433509 0.0433509 0.0433509 0.0433509 0.0433509 0.0433509 0.0433509 0.0433509 0.0433509 0.0390725 0.0390725 0.0390725 0.0390725 0.0390725 0.0390725 0.0390725 0.0390725 0.0390725 0.0372984 0.0372984 0.0372984 0.0372984 0.0372984 0.0372984 0.0372984 0.0392165 0.0392165 0.0392165 0.0392165 0.0392165 0.0392165 0.0393493 0.0393493 0.0393493 0.0393493 0.0393493 0.0393493 0.0393493 0.0393493 0.0393493 0.0393493 0.0393493 0.0393493 0.0393493 0.0393493 0.0393493 0.0393493 0.0400123 0.0378164 0.0378164 0.0378164 0.0378164 0.0378164 0.0378164 0.0435482 0.0435482 0.0435482 0.0435482 0.0435482 0.0435482 0.0435482 0.0435482 0.0435482 0.0435482 0.0435482 0.0435482 0.0435482 0.0435482 0.0435482 0.0414565 0.0414565 0.0414565 0.0414565 0.0414565 0.0414565 0.0414565 0.0414565 0.0414565 0.0414565 0.0414565 0.0375501 0.0375501 0.0375501 0.0375501 0.0375501 0.0375501 0.0375501 0.0375501 0.045162 0.045162 0.045162 0.045162 0.045162 0.045162 0.045162 0.045162 0.033065 0.033065 0.033065 0.0346355 0.0346355 0.0346355 0.0346355 0.0346355 0.0346355 0.0346355 0.0346355 0.0346355 0.0346355 0.0346355 0.327524 0.327524 0.327524 0.327524 0.327524 0.327524 0.327524 0.327524 0.327524 0.327524 0.327524 0.327524 0.327524 0.327524 0.327524 0.327524 0.327524 0.327524 0.327524 0.327524 0.0383955 0.0383955 0.0383955 0.0383955 0.0383955 0.0383955 0.0383955 0.0317359 0.0317359 0.0317359 0.0317359 0.0317359 0.0317359 0.0317359 0.0317359 0.0317359 0.0317359 0.0317359 0.0317359 0.0317359 0.0317359 0.0317359 0.0417867 0.0417867 0.0417867 0.0417867 0.0417867 0.0417867 0.0417867 0.0417867 0.0417867 0.0417867 0.0417867 0.0417867 0.0417867 0.0417867 0.0417867 0.0417867 0.0417867 0.0417867 0.0417867 0.0417867 0.0417867 0.0417867 0.0417867 0.0417867 0.0417867 0.0372453 0.0480853 0.0480853 0.0480853 0.0480853 0.0480853 0.0480853 0.0480853 0.0480853 0.0480853 0.0480853 0.0480853 0.0480853 0.0480853 0.0480853 0.0445872 0.0445872 0.0445872 0.0445872 0.0445872 0.0393855 0.0393855 0.0393855 0.0393855 0.0393855 0.0393855 0.0393855 0.0393855 0.0411419 0.0411419 0.0411419 0.0411419 0.0411419 0.0411419 0.0411419 0.0411419 0.0411419 0.0411419 0.0411419 0.0411419 0.0411419 0.0411419 0.0411419 0.0411419 0.0411419 0.0407216 0.0407216 0.0407216 0.0407216 0.0407216 0.0407216 0.0407216 0.0407216 0.0401055 0.0401055 0.0401055 0.0401055 0.0401055 0.0401055 0.0401055 0.0401055 0.0401055 0.0401055 0.0401055 0.0401055 0.0401055 0.0401055 0.0401055 0.0401055 0.0401055 0.0467428 0.0467428 0.0467428 0.0467428 0.0467428 0.0467428 0.0467428 0.0467428 0.0467428 0.0467428 0.0467428 0.0467428 0.0467428 0.0467428 0.0467428 0.0467428 0.0467428 0.0467428 0.0467428 0.0433193 0.0433193 0.0433193 0.0433193 0.0433193 0.0433193 0.0433193 0.0433193 0.0433193 0.0433193 0.0433193 0.0433193 0.0392781 0.313883 0.313883 0.313883 0.313883 0.313883 0.313883 0.313883 0.313883 0.313883 0.313883 0.313883 0.313883 0.313883 0.313883 0.313883 0.0387002 0.0387002 0.0387002 0.0387002 0.0387002 0.0387002 0.0387002 0.0387002 0.0387002 0.0387002 0.0404927 0.0404927 0.0404927 0.0404927 0.0404927 0.0404927 0.0404927 0.0404927 0.0404927 0.0404927 0.0404927 0.0376952 0.0376952 0.0376952 0.0376952 0.0376952 0.0376952 0.0380395 0.0441271 0.0441271 0.0441271 0.0441271 0.0441271 0.0441271 0.0441271 0.0441271 0.0441271 0.0441271 0.0441271 0.0441271 0.0441271 0.0441271 0.0441271 0.0423431 0.0423431 0.0423431 0.0423431 0.0423431 0.0423431 0.0423431 0.0423431 0.0423431 0.0423431 0.0423431 0.0423431 0.0423431 0.0423431 0.0423431 0.0423431 0.0423431 0.0423431 0.0423431 0.037604 0.037604 0.037604 0.037604 0.037604 0.037604 0.037604 0.037604 0.037604 0.037604 0.037604 0.037604 0.037604 0.037604 0.037604 0.037604 0.037604 0.0466988 0.0466988 0.0466988 0.0466988 0.0466988 0.0466988 0.0466988 0.0466988 0.0466988 0.0466988 0.0457859 0.0457859 0.0457859 0.0457859 0.0457859 0.0457859 0.0457859 0.0457859 0.0457859 0.0457859 0.0457859 0.0457859 0.0457859 0.0457859 0.0457859 0.0457859 0.0457859 0.0457859 0.0457859 0.0457859 0.0411507 0.0402355 0.0402355 0.0402355 0.0402355 0.0360904 0.0360904 0.0360904 0.0360904 0.0360904 0.0360904 0.0360904 0.0360904 0.0360904 0.0360904 0.0360904 0.0360904 0.0360904 0.0360904 0.0421967 0.0421967 0.0421967 0.0421967 0.0421967 0.0421967 0.0421967 0.0421967 0.0421967 0.0421967 0.0421967 0.0421967 0.0421967 0.0421967 0.0421967 0.0421967 0.0370509 0.0370509 0.0370509 0.0370509 0.0370509 0.0370509 0.0370509 0.0383558 0.0383558 0.0383558 0.0383558 0.0383558 0.0383558 0.0360586 0.0360586 0.0360586 0.0360586 0.0360586 0.0360586 0.0360586 0.0360586 0.0360586 0.0360586 0.0360586 0.0360586 0.0360586 0.0350903 0.0350903 0.0350903 0.0350903 0.0350903 0.0350903 0.0350903 0.0350903 0.0350903 0.0350903 0.0358581 0.0358581 0.0358581 0.0358581 0.0358581 0.0358581 0.0358581 0.0358581 0.0358581 0.0358581 0.0459719 0.0459719 0.0459719 0.0459719 0.0459719 0.0459719 0.0459719 0.0459719 0.0459719 0.0459719 0.0459719 0.0459719 0.0383984 0.0383984 0.0383984 0.0383984 0.0383984 0.0383984 0.0383984 0.0383984 0.0383984 0.0383984 0.0383984 0.0383984 0.0383984 0.0383984 0.0383984 0.0383984 0.0383984 0.0383984 0.0383984 0.0383984 0.0383984 0.0383984 0.0458714 0.0458714 0.0458714 0.0458714 0.0383549 0.0383549 0.0383549 0.0383549 0.0383549 0.0335381 0.0335381 0.0335381 0.0335381 0.0335381 0.0335381 0.0388452 0.0418782 0.0377438 0.0377438 0.0377438 0.0377438 0.0377438 0.0377438 0.345257 0.345257 0.345257 0.345257 0.345257 0.345257 0.345257 0.345257 0.345257 0.345257 0.345257 0.345257 0.345257 0.0383822 0.0383822 0.0383822 0.0383822 0.0383822 0.0383822 0.0383822 0.0383822 0.0383822 0.0383822 0.0383822 0.0383822 0.0383822 0.0383822 0.0383822 0.0383822 0.0383822 0.0383822 0.0383822 0.0387401 0.0387401 0.0387401 0.0417055 0.0417055 0.0417055 0.0417055 0.0417055 0.0417055 0.0417055 0.0417055 0.0417055 0.0417055 0.0417055 0.0417055 0.0417055 0.0417055 0.0417055 0.0417055 0.0417055 0.0408802 0.0408802 0.0408802 0.0408802 0.0408802 0.0408802 0.0408802 0.0408802 0.0408802 0.0408802 0.0408802 0.0408802 0.0408802 0.0408802 0.0408802 0.0408802 0.0408802 0.035417 0.035417 0.035417 0.035417 0.035417 0.035417 0.035417 0.035417 0.035417 0.035417 0.035417 0.035417 0.035417 0.035417 0.0328763 0.0328763 0.0328763 0.0328763 0.0328763 0.0328763 0.0419652 0.0419652 0.0419652 0.0419652 0.0419652 0.0353076 0.0353076 0.0353076 0.0353076 0.0353076 0.0353076 0.0353076 0.0459953 0.0459953 0.0459953 0.0459953 0.0459953 0.0459953 0.0459953 0.0459953 0.0459953 0.0459953 0.0459953 0.0459953 0.0459953 0.0370099 0.0370099 0.0370099 0.0370099 0.0370099 0.0370099 0.0370099 0.0370099 0.0427416 0.0427416 0.0427416 0.0427416 0.0427416 0.0427416 0.0458803 0.0458803 0.033618 0.033618 0.033618 0.033618 0.033618 0.033618 0.033618 0.033618 0.033618 0.319027 0.319027 0.319027 0.319027 0.319027 0.319027 0.319027 0.319027 0.319027 0.319027 0.0346206 0.0456419 0.0456419 0.0456419 0.0456419 0.0456419 0.0456419 0.0456419 0.0456419 0.0456419 0.0456419 0.0456419 0.0456419 0.0456419 0.0456419 0.0365024 0.0365024 0.0365024 0.0365024 0.0365024 0.0365024 0.0365024 0.0346988 0.0346988 0.0346988 0.0346988 0.0346988 0.0346988 0.0346988 0.0346988 0.0346988 0.0346988 0.0346988 0.0396196 0.0396196 0.0396196 0.0396196 0.0396196 0.0396196 0.0396196 0.0396196 0.0396196 0.0396196 0.0379455 0.0410556 0.0410556 0.0410556 0.0410556 0.0410556 0.0410556 0.0406493 0.0406493 0.0406493 0.0406493 0.0406493 0.0405764 0.0405764 0.0414396 0.0414396 0.0414396 0.0414396 0.0414396 0.0414396 0.0414396 0.0414396 0.0340665 0.0340665 0.0340665 1.21701 1.21701 1.21701 1.21701 1.21701 1.21701 1.21701 1.21701 1.21701 1.21701 1.21701 1.21701 1.21701 1.21701 1.21701 1.21701 1.21701 1.21701 1.21701 1.21701 1.21701 1.21701 1.21701 1.21701 1.21701 1.21701 1.21701 1.21701 1.21701 1.21701 1.21701 1.21701 1.21701 1.21701 1.21701 1.21701 1.21701 1.21701 1.21701 1.21701 1.21701 1.21701 1.21701 1.21701 1.21701 1.21701 1.21701 1.21701 1.21701 1.21701 1.21701 1.21701 1.21701 1.21701 1.21701 1.21701 1.21701 1.21701 1.21701 1.21701 1.21701 1.21701 1.21701 1.21701 1.21701 1.21701 1.21701 1.21701 1.21701 1.21701 1.21701 1.21701 1.21701 1.21701 1.21701 1.21701 1.21701 1.21701 1.21701 1.21701 1.21701 1.21701 1.21701 1.21701 1.21701 1.21701 1.21701 1.21701 1.21701 1.21701 1.21701 1.21701 1.21701 1.21701 1.21701 1.21701 1.21701 1.21701 1.21701 1.21701 1.21701 1.21701 1.21701 1.21701 1.21701 1.21701 1.21701 1.21701 1.21701 1.21701 1.21701 1.21701 1.21701 1.21701 1.21701 1.21701 1.21701 1.21701 1.21701 1.21701 1.21701 1.21701 1.21701 1.21701 1.21701 1.21701 1.21701 1.21701 1.21701 1.21701 1.21701 1.21701 1.21701 1.21701 1.21701 1.21701 1.21701 1.21701 1.21701 1.21701 1.21701 1.21701 1.21701 1.21701 1.21701 1.21701 1.21701 1.21701 1.21701 1.21701 1.21701 1.21701 1.21701 1.21701 1.21701 1.21701 1.21701 1.21701 1.21701 1.21701 1.21701 1.21701 1.21701 1.21701 1.21701 1.21701 1.21701 1.21701 1.21701 1.21701 1.21701 1.21701 1.21701 1.21701 1.21701 1.21701 1.21701 1.21701 1.21701 1.21701 1.21701 1.21701 1.21701 1.21701 1.21701 1.21701 1.21701 1.21701 1.21701 1.21701 1.21701 1.21701 1.21701 1.21701 1.21701 1.21701 1.21701 1.21701 1.21701 1.21701 1.21701 1.21701 1.21701 1.21701 1.21701 1.21701 1.21701 1.21701 1.21701 1.21701 1.21701 1.21701 1.21701 1.21701 1.21701 1.21701 1.21701 1.21701 1.21701 1.21701 1.21701 1.21701 1.21701 1.21701 1.21701 1.21701 1.21701 1.21701 1.21701 1.21701 1.21701 1.21701 1.21701 1.21701 1.21701 1.21701 1.21701 1.21701 1.21701 1.21701 1.21701 1.21701 1.21701 1.21701 1.21701 1.21701 1.21701 1.21701 1.21701 1.21701 1.21701 1.21701 1.21701 1.21701 1.21701 1.21701 1.21701 1.21701 1.21701 1.21701 1.21701 1.21701 1.21701 1.21701 1.21701 1.21701 1.21701 1.21701 1.21701 1.21701 1.21701 1.21701 1.21701 1.21701 1.21701 1.21701 1.21701 1.21701 1.21701 1.21701 1.21701 1.21701 1.21701 1.21701 1.21701 1.21701 1.21701 1.21701 1.21701 1.21701 1.21701 1.21701 1.21701 1.21701 1.21701 1.21701 1.21701 1.21701 1.21701 1.21701 1.21701 1.21701 1.21701 1.21701 1.21701 1.21701 1.21701 1.21701 1.21701 1.21701 1.21701 1.21701 1.21701 1.21701 1.21701 1.21701 1.21701 1.21701 1.21701 1.21701 1.21701 1.21701 1.21701 1.21701 1.21701 1.21701 1.21701 1.21701 1.21701 1.21701 1.21701 1.21701 1.21701 1.21701 1.21701 1.21701 1.21701 1.21701 0.326431 0.326431 0.326431 0.326431 0.326431 0.326431 0.326431 0.326431 0.326431 0.326431 0.326431 0.326431 0.326431 0.326431 0.326431 0.326431 0.326431 0.326431 0.326431 0.0370666 0.0370666 0.0370666 0.0370666 0.0370666 0.0370666 0.0419278 0.0419278 0.0419278 0.0419278 0.0419278 0.0419278 0.0419278 0.0419278 0.0419278 0.0419278 0.0419278 0.0419278 0.0419278 0.0407483 0.0407483 0.0407483 0.0407483 0.0407483 0.0407483 0.0407483 0.0407483 0.0407483 0.0407483 0.0407483 0.0407483 0.0361276 0.0361276 0.0361276 0.0361276 0.0361276 0.0361276 0.0361276 0.0361276 0.0361276 0.0361276 0.0361276 0.0361276 0.0361276 0.0361276 0.0361276 0.0361276 0.0442729 0.0442729 0.0442729 0.0442729 0.0442729 0.0442729 0.0442729 0.0442729 0.0442729 0.0442729 0.0442729 0.0442729 0.0442729 0.0442729 0.0442729 0.0442729 0.0442729 0.0442729 0.0442729 0.0442729 0.0442729 0.0442729 0.0442729 0.0442729 0.0366422 0.0366422 0.0366422 0.0372309 0.0372309 0.0372309 0.0372309 0.0372309 0.0372309 0.0372309 0.0372309 0.0372309 0.0372309 0.0372309 0.0372309 0.0372309 0.0372309 0.0372309 0.0372309 0.0372309 0.0372309 0.0372309 0.0372309 0.0364354 0.0364354 0.0364354 0.0364354 0.0364354 0.0364354 0.0364354 0.0364354 0.0364354 0.0364354 0.0364354 0.0364354 0.0364354 0.0364354 0.0364354 0.0389771 0.0389771 0.0389771 0.0389771 0.0389771 0.038977